ITEM: TIMESTEP
0
ITEM: NUMBER OF ATOMS
38
ITEM: BOX BOUNDS pp pp pp
0.0000000000000000e+00 1.0000000000000000e+01
0.0000000000000000e+00 1.0000000000000000e+01
0.0000000000000000e+00 2.0000000000000000e+01
ITEM: ATOMS element x y z
C 1.93717 5.54907 1
C 5.90469 4.85889 1
C 9.69845 1.8618 1
C 9.85333 4.43058 1
C 5.57148 6.30631 1
C 7.49914 8.2325 1
C 5.77006 2.44287 1
C 5.02233 1.3259 1
C 3.42782 7.95265 1
C 3.34035 5.40236 1
C 7.25184 4.60143 1
C 1.22836 4.32355 1
C 6.91241 6.93162 1
C 9.23786 5.72022 1
C 4.15333 6.6199 1
C 7.8837 5.82009 1
C 3.67521 1.58365 1
C 7.10931 2.16629 1
C 5.15695 3.74176 1
C 9.86276 6.94654 1
C 7.83488 3.3301 1
C 8.9724 8.14173 1
C 6.77358 9.56511 1
C 4.01454 9.25348 1
C 1.06426 9.23856 1
C 9.18859 3.19838 1
C 1.73821 2.98685 1
C 9.65776 9.35859 1
C 7.58646 0.782632 1
C 1.95459 8.04346 1
C 3.09195 2.85501 1
C 3.04318 0.365108 1
C 1.07343 1.75468 1
C 5.35548 9.87852 1
C 1.689 0.465034 1
C 3.81775 4.01867 1
C 1.26921 6.82648 1
C 8.98973 0.636088 1
ITEM: TIMESTEP
1
ITEM: NUMBER OF ATOMS
38
ITEM: BOX BOUNDS pp pp pp
0.0000000000000000e+00 1.0000000000000000e+01
0.0000000000000000e+00 1.0000000000000000e+01
0.0000000000000000e+00 2.0000000000000000e+01
ITEM: ATOMS element x y z
C 1.93364 5.54905 1.0023
C 5.9033 4.85771 0.997713
C 9.70288 1.86176 1.00034
C 9.8519 4.42726 1.00253
C 5.57525 6.30574 0.998066
C 7.49758 8.22981 0.998497
C 5.7674 2.44519 1.00058
C 5.0257 1.32764 0.996968
C 3.42864 7.94945 1.00313
C 3.34059 5.40193 0.999902
C 7.25021 4.59731 0.996238
C 1.23291 4.32669 1.0028
C 6.9135 6.93364 1.00103
C 9.23712 5.71907 0.998051
C 4.15264 6.62085 0.999098
C 7.88059 5.82017 0.997239
C 3.67541 1.58206 0.997967
C 7.10634 2.17008 1.00061
C 5.15416 3.74558 0.999737
C 9.86491 6.94375 1.0008
C 7.83946 3.32743 1.00163
C 8.97208 8.14109 1.00185
C 6.77145 9.56747 1.0024
C 4.01175 9.24946 0.99712
C 1.06586 9.23735 0.998234
C 9.1892 3.19841 0.99684
C 1.74269 2.98539 1.00269
C 9.65634 9.35981 1.00312
C 7.58677 0.781992 1.00369
C 1.95482 8.04711 0.998809
C 3.0949 2.85777 1.00241
C 3.04423 0.367551 1.00081
C 1.07244 1.75318 0.999077
C 5.35552 9.87888 1.00122
C 1.68604 0.464724 1.00028
C 3.81431 4.0201 0.999435
C 1.26929 6.82979 0.997323
C 8.98973 0.63426 0.999465
ITEM: TIMESTEP
2
ITEM: NUMBER OF ATOMS
38
ITEM: BOX BOUNDS pp pp pp
0.0000000000000000e+00 1.0000000000000000e+01
0.0000000000000000e+00 1.0000000000000000e+01
0.0000000000000000e+00 2.0000000000000000e+01
ITEM: ATOMS element x y z
C 1.93017 5.54907 1.00459
C 5.90193 4.85656 0.995426
C 9.70723 1.86172 1.00067
C 9.85053 4.42398 1.00505
C 5.57899 6.30517 0.996135
C 7.49605 8.22716 0.997
C 5.76478 2.44755 1.00115
C 5.02899 1.32933 0.99394
C 3.42942 7.94627 1.00626
C 3.3408 5.40151 0.999805
C 7.2486 4.59321 0.992477
C 1.23735 4.32975 1.00561
C 6.91455 6.93562 1.00205
C 9.23638 5.71791 0.996106
C 4.15198 6.62178 0.998198
C 7.87754 5.82021 0.994479
C 3.67564 1.58053 0.995936
C 7.10341 2.17381 1.00121
C 5.15136 3.74935 0.999473
C 9.86702 6.941 1.0016
C 7.84395 3.32479 1.00326
C 8.97176 8.14045 1.00371
C 6.76933 9.56979 1.0048
C 4.00902 9.24549 0.99425
C 1.06742 9.23617 0.996473
C 9.18985 3.19839 0.993686
C 1.74713 2.98396 1.00538
C 9.65494 9.36098 1.00624
C 7.58706 0.78138 1.00737
C 1.95505 8.05072 0.997621
C 3.09783 2.86045 1.00482
C 3.04521 0.369934 1.00161
C 1.07152 1.7517 0.998157
C 5.35556 9.87924 1.00244
C 1.68315 0.464422 1.00055
C 3.81093 4.02156 0.998873
C 1.26939 6.83307 0.994651
C 8.98974 0.632473 0.998935
ITEM: TIMESTEP
3
ITEM: NUMBER OF ATOMS
38
ITEM: BOX BOUNDS pp pp pp
0.0000000000000000e+00 1.0000000000000000e+01
0.0000000000000000e+00 1.0000000000000000e+01
0.0000000000000000e+00 2.0000000000000000e+01
ITEM: ATOMS element x y z
C 1.92684 5.54918 1.00688
C 5.90059 4.85549 0.993135
C 9.71141 1.86165 1.001
C 9.8493 4.42081 1.00756
C 5.58265 6.3046 0.994208
C 7.49455 8.22458 0.995515
C 5.76223 2.44999 1.00173
C 5.03209 1.33095 0.990919
C 3.43016 7.94314 1.00936
C 3.34095 5.40115 0.99971
C 7.24702 4.58919 0.988721
C 1.2416 4.33265 1.00842
C 6.91555 6.93751 1.00307
C 9.23563 5.71672 0.994169
C 4.15135 6.62268 0.997302
C 7.87458 5.82021 0.991724
C 3.67597 1.57912 0.993909
C 7.10057 2.17746 1.00183
C 5.14852 3.75304 0.999208
C 9.86905 6.93831 1.00239
C 7.84828 3.32224 1.00487
C 8.97144 8.13981 1.00556
C 6.76726 9.57205 1.00719
C 4.00639 9.2416 0.991396
C 1.06889 9.23501 0.994722
C 9.19059 3.19826 0.990546
C 1.75146 2.98258 1.00807
C 9.6536 9.36207 1.00935
C 7.58732 0.78082 1.01105
C 1.95528 8.05425 0.996436
C 3.10073 2.86297 1.00722
C 3.04606 0.372198 1.00241
C 1.07075 1.75028 0.997243
C 5.35556 9.87962 1.00365
C 1.68041 0.464137 1.00082
C 3.80765 4.02306 0.998315
C 1.26951 6.8363 0.991989
C 8.98977 0.630766 0.998412
ITEM: TIMESTEP
4
ITEM: NUMBER OF ATOMS
38
ITEM: BOX BOUNDS pp pp pp
0.0000000000000000e+00 1.0000000000000000e+01
0.0000000000000000e+00 1.0000000000000000e+01
0.0000000000000000e+00 2.0000000000000000e+01
ITEM: ATOMS element x y z
C 1.92369 5.54942 1.00915
C 5.89931 4.85454 0.990841
C 9.71533 1.86156 1.00131
C 9.84825 4.41779 1.01005
C 5.58621 6.30404 0.992288
C 7.49311 8.22213 0.994047
C 5.75978 2.45256 1.00229
C 5.03495 1.33246 0.987906
C 3.43081 7.9401 1.01245
C 3.341 5.40086 0.999618
C 7.24548 4.58526 0.984971
C 1.24554 4.3353 1.01122
C 6.91645 6.93927 1.00407
C 9.23487 5.7155 0.992243
C 4.1508 6.62355 0.996412
C 7.87177 5.82012 0.988973
C 3.67641 1.57788 0.991889
C 7.09785 2.18096 1.00246
C 5.14564 3.75658 0.998939
C 9.87096 6.93574 1.00318
C 7.85237 3.31979 1.00647
C 8.97113 8.13918 1.0074
C 6.76525 9.57423 1.00958
C 4.0039 9.23784 0.988568
C 1.07023 9.23391 0.992984
C 9.19146 3.19798 0.987424
C 1.75565 2.98127 1.01076
C 9.65234 9.36304 1.01245
C 7.58753 0.780339 1.01472
C 1.9555 8.05765 0.995258
C 3.10359 2.86525 1.00961
C 3.04672 0.374288 1.00319
C 1.07022 1.74893 0.996339
C 5.35553 9.88001 1.00485
C 1.67789 0.463875 1.00108
C 3.80454 4.02463 0.997765
C 1.26968 6.83943 0.989343
C 8.98982 0.629179 0.997903
ITEM: TIMESTEP
5
ITEM: NUMBER OF ATOMS
38
ITEM: BOX BOUNDS pp pp pp
0.0000000000000000e+00 1.0000000000000000e+01
0.0000000000000000e+00 1.0000000000000000e+01
0.0000000000000000e+00 2.0000000000000000e+01
ITEM: ATOMS element x y z
C 1.9208 5.54984 1.01142
C 5.89809 4.85374 0.98854
C 9.71893 1.86144 1.00161
C 9.84743 4.41497 1.01253
C 5.58963 6.30349 0.990376
C 7.49175 8.21985 0.992602
C 5.75746 2.45528 1.00286
C 5.03748 1.33381 0.984905
C 3.43135 7.93715 1.0155
C 3.34094 5.40067 0.999529
C 7.244 4.58146 0.981228
C 1.24911 4.33763 1.01403
C 6.91723 6.94086 1.00504
C 9.2341 5.71424 0.990332
C 4.15032 6.62436 0.995528
C 7.86915 5.81993 0.98623
C 3.67701 1.57686 0.989877
C 7.09528 2.18428 1.00311
C 5.1427 3.75996 0.998666
C 9.87271 6.9333 1.00395
C 7.85615 3.3175 1.00805
C 8.97081 8.13856 1.00923
C 6.76331 9.57629 1.01195
C 4.00161 9.23425 0.985771
C 1.07141 9.23288 0.991265
C 9.1925 3.19751 0.984326
C 1.75965 2.98004 1.01345
C 9.65119 9.36384 1.01552
C 7.58768 0.779956 1.01837
C 1.95571 8.06088 0.994088
C 3.10639 2.86724 1.01199
C 3.04714 0.376155 1.00396
C 1.06998 1.74769 0.995449
C 5.35546 9.88044 1.00602
C 1.67564 0.463644 1.00133
C 3.80164 4.0263 0.997223
C 1.26991 6.84244 0.986717
C 8.98989 0.627744 0.99741
ITEM: TIMESTEP
6
ITEM: NUMBER OF ATOMS
38
ITEM: BOX BOUNDS pp pp pp
0.0000000000000000e+00 1.0000000000000000e+01
0.0000000000000000e+00 1.0000000000000000e+01
0.0000000000000000e+00 2.0000000000000000e+01
ITEM: ATOMS element x y z
C 1.9182 5.55047 1.01366
C 5.89695 4.85313 0.986229
C 9.72213 1.86127 1.0019
C 9.8469 4.41239 1.01498
C 5.59288 6.30295 0.988473
C 7.49049 8.21775 0.991184
C 5.75529 2.45817 1.00341
C 5.03962 1.335 0.981918
C 3.43177 7.93433 1.01852
C 3.34074 5.4006 0.999445
C 7.24259 4.5778 0.977492
C 1.25223 4.33958 1.01685
C 6.91787 6.94224 1.006
C 9.23333 5.71292 0.988438
C 4.14995 6.6251 0.994653
C 7.86675 5.81962 0.983493
C 3.67779 1.57609 0.987873
C 7.0929 2.1874 1.00378
C 5.1397 3.76313 0.998389
C 9.87428 6.93103 1.00472
C 7.85957 3.31538 1.0096
C 8.97049 8.13795 1.01106
C 6.76147 9.57822 1.01431
C 3.99955 9.23085 0.983014
C 1.0724 9.23193 0.989569
C 9.19373 3.19681 0.981255
C 1.76341 2.97893 1.01613
C 9.65016 9.36446 1.01858
C 7.58776 0.779691 1.02201
C 1.95592 8.0639 0.992928
C 3.10911 2.86887 1.01436
C 3.04729 0.377755 1.00471
C 1.07009 1.74656 0.994573
C 5.35533 9.88089 1.00718
C 1.67372 0.46345 1.00157
C 3.79899 4.02807 0.996693
C 1.2702 6.84531 0.984114
C 8.99 0.626491 0.996937
ITEM: TIMESTEP
7
ITEM: NUMBER OF ATOMS
38
ITEM: BOX BOUNDS pp pp pp
0.0000000000000000e+00 1.0000000000000000e+01
0.0000000000000000e+00 1.0000000000000000e+01
0.0000000000000000e+00 2.0000000000000000e+01
ITEM: ATOMS element x y z
C 1.91596 5.55135 1.01589
C 5.89591 4.85273 0.983907
C 9.72489 1.86106 1.00216
C 9.8467 4.41007 1.01741
C 5.59594 6.30241 0.986582
C 7.48934 8.21589 0.989799
C 5.7533 2.46125 1.00396
C 5.04132 1.336 0.978944
C 3.43203 7.93165 1.02149
C 3.34037 5.40066 0.999367
C 7.24126 4.57432 0.973763
C 1.25483 4.3411 1.01967
C 6.91835 6.94338 1.00692
C 9.23254 5.71154 0.986563
C 4.14968 6.62576 0.993787
C 7.86461 5.81916 0.980764
C 3.67876 1.57562 0.985879
C 7.09072 2.19026 1.00447
C 5.13664 3.76606 0.998105
C 9.87563 6.92895 1.00548
C 7.86257 3.31347 1.01113
C 8.97018 8.13734 1.01288
C 6.75975 9.57999 1.01666
C 3.99776 9.22768 0.980302
C 1.07317 9.23109 0.9879
C 9.19519 3.19585 0.978215
C 1.76691 2.97793 1.01882
C 9.64926 9.36484 1.02161
C 7.58775 0.779561 1.02564
C 1.95612 8.06669 0.991781
C 3.11173 2.87008 1.01671
C 3.04713 0.379055 1.00544
C 1.07059 1.74557 0.993716
C 5.35514 9.88138 1.0083
C 1.67217 0.463296 1.0018
C 3.79663 4.02996 0.996174
C 1.27057 6.84801 0.981537
C 8.99014 0.625448 0.996487
ITEM: TIMESTEP
8
ITEM: NUMBER OF ATOMS
38
ITEM: BOX BOUNDS pp pp pp
0.0000000000000000e+00 1.0000000000000000e+01
0.0000000000000000e+00 1.0000000000000000e+01
0.0000000000000000e+00 2.0000000000000000e+01
ITEM: ATOMS element x y z
C 1.9141 5.55249 1.01809
C 5.89497 4.85255 0.98157
C 9.72717 1.86079 1.00239
C 9.84683 4.40806 1.0198
C 5.59877 6.30189 0.984702
C 7.48831 8.21428 0.988451
C 5.7515 2.46453 1.0045
C 5.04256 1.33679 0.975986
C 3.43214 7.92913 1.02442
C 3.33983 5.40089 0.999296
C 7.24003 4.57103 0.970042
C 1.25688 4.34214 1.0225
C 6.91864 6.94425 1.00781
C 9.23176 5.71009 0.98471
C 4.14954 6.62634 0.992931
C 7.86274 5.81855 0.97804
C 3.67994 1.57546 0.983893
C 7.08878 2.19285 1.0052
C 5.13352 3.76874 0.997815
C 9.87674 6.92708 1.00622
C 7.86512 3.31177 1.01262
C 8.96986 8.13675 1.01469
C 6.75815 9.58158 1.019
C 3.99626 9.22476 0.977639
C 1.07369 9.23037 0.986261
C 9.19687 3.19461 0.975209
C 1.77011 2.97707 1.0215
C 9.64853 9.36499 1.02461
C 7.58766 0.77958 1.02925
C 1.9563 8.0692 0.990648
C 3.11424 2.87086 1.01904
C 3.04666 0.38003 1.00614
C 1.07154 1.74473 0.992879
C 5.35488 9.88192 1.0094
C 1.67102 0.463186 1.00202
C 3.79458 4.03198 0.995668
C 1.27101 6.85053 0.978989
C 8.99032 0.624635 0.996065
ITEM: TIMESTEP
9
ITEM: NUMBER OF ATOMS
38
ITEM: BOX BOUNDS pp pp pp
0.0000000000000000e+00 1.0000000000000000e+01
0.0000000000000000e+00 1.0000000000000000e+01
0.0000000000000000e+00 2.0000000000000000e+01
ITEM: ATOMS element x y z
C 1.91266 5.55391 1.02027
C 5.89413 4.85263 0.979212
C 9.72894 1.86046 1.0026
C 9.84734 4.40636 1.02217
C 5.60136 6.30138 0.982834
C 7.48743 8.21295 0.987143
C 5.74989 2.46799 1.00503
C 5.04331 1.3374 0.973043
C 3.43207 7.9268 1.02729
C 3.33911 5.4013 0.999232
C 7.2389 4.56795 0.966325
C 1.25834 4.34267 1.02535
C 6.91874 6.94482 1.00866
C 9.23098 5.70857 0.98288
C 4.14953 6.62682 0.992087
C 7.86118 5.81775 0.975322
C 3.68131 1.57561 0.981916
C 7.08708 2.19515 1.00596
C 5.13036 3.77117 0.997517
C 9.87758 6.92543 1.00695
C 7.86718 3.3103 1.01408
C 8.96954 8.13617 1.01649
C 6.75669 9.58298 1.02132
C 3.99507 9.22212 0.975031
C 1.07395 9.22978 0.984657
C 9.19879 3.19308 0.972239
C 1.77299 2.97635 1.02419
C 9.64796 9.36487 1.02758
C 7.58747 0.77976 1.03284
C 1.95648 8.07142 0.989531
C 3.11663 2.87118 1.02136
C 3.04589 0.380665 1.00682
C 1.07294 1.74406 0.992065
C 5.35453 9.8825 1.01046
C 1.6703 0.463119 1.00221
C 3.79286 4.03412 0.995178
C 1.27153 6.85282 0.976472
C 8.99052 0.624066 0.995672
ITEM: TIMESTEP
10
ITEM: NUMBER OF ATOMS
38
ITEM: BOX BOUNDS pp pp pp
0.0000000000000000e+00 1.0000000000000000e+01
0.0000000000000000e+00 1.0000000000000000e+01
0.0000000000000000e+00 2.0000000000000000e+01
ITEM: ATOMS element x y z
C 1.91165 5.55562 1.02243
C 5.8934 4.85295 0.976831
C 9.7302 1.86007 1.00278
C 9.84823 4.40499 1.0245
C 5.60367 6.30087 0.980978
C 7.4867 8.21193 0.98588
C 5.74849 2.47162 1.00555
C 5.04357 1.33781 0.970114
C 3.43182 7.92465 1.03011
C 3.33821 5.40189 0.999177
C 7.23789 4.56511 0.962611
C 1.2592 4.34268 1.02821
C 6.91863 6.94508 1.00948
C 9.23022 5.70698 0.981075
C 4.14967 6.62719 0.991253
C 7.85993 5.81677 0.972608
C 3.68287 1.57607 0.979947
C 7.08564 2.19713 1.00677
C 5.12717 3.77332 0.997209
C 9.87813 6.92403 1.00766
C 7.86876 3.30907 1.0155
C 8.96922 8.13561 1.01827
C 6.75538 9.58417 1.02363
C 3.99421 9.21976 0.972482
C 1.07394 9.22934 0.98309
C 9.20094 3.19127 0.969307
C 1.77553 2.97577 1.02689
C 9.64756 9.36447 1.03052
C 7.58719 0.780108 1.03642
C 1.95663 8.07332 0.988431
C 3.11887 2.87103 1.02366
C 3.04481 0.380954 1.00747
C 1.0748 1.74355 0.991277
C 5.3541 9.88314 1.01148
C 1.67 0.463094 1.00239
C 3.79147 4.03638 0.994704
C 1.27213 6.85489 0.973987
C 8.99076 0.623754 0.995313
